LAMMPS data file via POLY

8140 atoms
1 atom types

0.00000000 100.00000000 xlo xhi
0.00000000 50.00000000 ylo yhi
0.00000000 30.00000000 zlo zhi

Masses

  1 30.973762


Atoms

  1 1 49.42294574 21.42643088 2.23672260
  2 1 49.42294574 21.42643088 4.78937808
  3 1 49.42294574 21.42643088 7.34203356
  4 1 49.42294574 21.42643088 9.89468904
  5 1 49.42294574 21.42643088 12.44734452
  6 1 49.42294574 21.42643088 15.00000000
  7 1 49.42294574 21.42643088 17.55265548
  8 1 49.42294574 21.42643088 20.10531096
  9 1 49.42294574 21.42643088 22.65796644
  10 1 47.86016253 19.86286249 0.96039486
  11 1 47.86016253 19.86286249 3.51305034
  12 1 47.86016253 19.86286249 6.06570582
  13 1 47.86016253 19.86286249 8.61836130
  14 1 47.86016253 19.86286249 11.17101678
  15 1 47.86016253 19.86286249 13.72367226
  16 1 47.86016253 19.86286249 16.27632774
  17 1 47.86016253 19.86286249 18.82898322
  18 1 47.86016253 19.86286249 21.38163870
  19 1 47.86016253 19.86286249 23.93429418
  20 1 46.29737931 18.29929410 2.23672260
  21 1 46.29737931 18.29929410 4.78937808
  22 1 46.29737931 18.29929410 7.34203356
  23 1 46.29737931 18.29929410 9.89468904
  24 1 46.29737931 18.29929410 12.44734452
  25 1 46.29737931 18.29929410 15.00000000
  26 1 46.29737931 18.29929410 17.55265548
  27 1 46.29737931 18.29929410 20.10531096
  28 1 46.29737931 18.29929410 22.65796644
  29 1 46.29737931 18.29929410 25.21062192
  30 1 44.73459609 16.73572571 0.96039486
  31 1 44.73459609 16.73572571 3.51305034
  32 1 44.73459609 16.73572571 6.06570582
  33 1 44.73459609 16.73572571 8.61836130
  34 1 44.73459609 16.73572571 11.17101678
  35 1 44.73459609 16.73572571 13.72367226
  36 1 44.73459609 16.73572571 16.27632774
  37 1 44.73459609 16.73572571 18.82898322
  38 1 44.73459609 16.73572571 21.38163870
  39 1 44.73459609 16.73572571 23.93429418
  40 1 44.73459609 16.73572571 26.48694966
  41 1 43.17181287 15.17215731 2.23672260
  42 1 43.17181287 15.17215731 4.78937808
  43 1 43.17181287 15.17215731 7.34203356
  44 1 43.17181287 15.17215731 9.89468904
  45 1 43.17181287 15.17215731 12.44734452
  46 1 43.17181287 15.17215731 15.00000000
  47 1 43.17181287 15.17215731 17.55265548
  48 1 43.17181287 15.17215731 20.10531096
  49 1 43.17181287 15.17215731 22.65796644
  50 1 43.17181287 15.17215731 25.21062192
  51 1 43.17181287 15.17215731 27.76327740
  52 1 41.60902966 13.60858892 0.96039486
  53 1 41.60902966 13.60858892 3.51305034
  54 1 41.60902966 13.60858892 6.06570582
  55 1 41.60902966 13.60858892 8.61836130
  56 1 41.60902966 13.60858892 11.17101678
  57 1 41.60902966 13.60858892 13.72367226
  58 1 41.60902966 13.60858892 16.27632774
  59 1 41.60902966 13.60858892 18.82898322
  60 1 41.60902966 13.60858892 21.38163870
  61 1 41.60902966 13.60858892 23.93429418
  62 1 41.60902966 13.60858892 26.48694966
  63 1 41.60902966 13.60858892 29.03960514
  64 1 40.04624644 12.04502053 2.23672260
  65 1 40.04624644 12.04502053 4.78937808
  66 1 40.04624644 12.04502053 7.34203356
  67 1 40.04624644 12.04502053 9.89468904
  68 1 40.04624644 12.04502053 12.44734452
  69 1 40.04624644 12.04502053 15.00000000
  70 1 40.04624644 12.04502053 17.55265548
  71 1 40.04624644 12.04502053 20.10531096
  72 1 40.04624644 12.04502053 22.65796644
  73 1 40.04624644 12.04502053 25.21062192
  74 1 40.04624644 12.04502053 27.76327740
  75 1 38.48346322 10.48145214 0.96039486
  76 1 38.48346322 10.48145214 3.51305034
  77 1 38.48346322 10.48145214 6.06570582
  78 1 38.48346322 10.48145214 8.61836130
  79 1 38.48346322 10.48145214 11.17101678
  80 1 38.48346322 10.48145214 13.72367226
  81 1 38.48346322 10.48145214 16.27632774
  82 1 38.48346322 10.48145214 18.82898322
  83 1 38.48346322 10.48145214 21.38163870
  84 1 38.48346322 10.48145214 23.93429418
  85 1 38.48346322 10.48145214 26.48694966
  86 1 38.48346322 10.48145214 29.03960514
  87 1 36.92068001 8.91788375 2.23672260
  88 1 36.92068001 8.91788375 4.78937808
  89 1 36.92068001 8.91788375 7.34203356
  90 1 36.92068001 8.91788375 9.89468904
  91 1 36.92068001 8.91788375 12.44734452
  92 1 36.92068001 8.91788375 15.00000000
  93 1 36.92068001 8.91788375 17.55265548
  94 1 36.92068001 8.91788375 20.10531096
  95 1 36.92068001 8.91788375 22.65796644
  96 1 36.92068001 8.91788375 25.21062192
  97 1 36.92068001 8.91788375 27.76327740
  98 1 35.35789679 7.35431535 0.96039486
  99 1 35.35789679 7.35431535 3.51305034
  100 1 35.35789679 7.35431535 6.06570582
  101 1 35.35789679 7.35431535 8.61836130
  102 1 35.35789679 7.35431535 11.17101678
  103 1 35.35789679 7.35431535 13.72367226
  104 1 35.35789679 7.35431535 16.27632774
  105 1 35.35789679 7.35431535 18.82898322
  106 1 35.35789679 7.35431535 21.38163870
  107 1 35.35789679 7.35431535 23.93429418
  108 1 35.35789679 7.35431535 26.48694966
  109 1 35.35789679 7.35431535 29.03960514
  110 1 33.79511357 5.79074696 2.23672260
  111 1 33.79511357 5.79074696 4.78937808
  112 1 33.79511357 5.79074696 7.34203356
  113 1 33.79511357 5.79074696 9.89468904
  114 1 33.79511357 5.79074696 12.44734452
  115 1 33.79511357 5.79074696 15.00000000
  116 1 33.79511357 5.79074696 17.55265548
  117 1 33.79511357 5.79074696 20.10531096
  118 1 33.79511357 5.79074696 22.65796644
  119 1 33.79511357 5.79074696 25.21062192
  120 1 33.79511357 5.79074696 27.76327740
  121 1 32.23233036 4.22717857 0.96039486
  122 1 32.23233036 4.22717857 3.51305034
  123 1 32.23233036 4.22717857 6.06570582
  124 1 32.23233036 4.22717857 8.61836130
  125 1 32.23233036 4.22717857 11.17101678
  126 1 32.23233036 4.22717857 13.72367226
  127 1 32.23233036 4.22717857 16.27632774
  128 1 32.23233036 4.22717857 18.82898322
  129 1 32.23233036 4.22717857 21.38163870
  130 1 32.23233036 4.22717857 23.93429418
  131 1 32.23233036 4.22717857 26.48694966
  132 1 32.23233036 4.22717857 29.03960514
  133 1 30.66954714 2.66361018 2.23672260
  134 1 30.66954714 2.66361018 4.78937808
  135 1 30.66954714 2.66361018 7.34203356
  136 1 30.66954714 2.66361018 9.89468904
  137 1 30.66954714 2.66361018 12.44734452
  138 1 30.66954714 2.66361018 15.00000000
  139 1 30.66954714 2.66361018 17.55265548
  140 1 30.66954714 2.66361018 20.10531096
  141 1 30.66954714 2.66361018 22.65796644
  142 1 30.66954714 2.66361018 25.21062192
  143 1 30.66954714 2.66361018 27.76327740
  144 1 29.10676392 1.10004179 0.96039486
  145 1 29.10676392 1.10004179 3.51305034
  146 1 29.10676392 1.10004179 6.06570582
  147 1 29.10676392 1.10004179 8.61836130
  148 1 29.10676392 1.10004179 11.17101678
  149 1 29.10676392 1.10004179 13.72367226
  150 1 29.10676392 1.10004179 16.27632774
  151 1 29.10676392 1.10004179 18.82898322
  152 1 29.10676392 1.10004179 21.38163870
  153 1 29.10676392 1.10004179 23.93429418
  154 1 29.10676392 1.10004179 26.48694966
  155 1 29.10676392 1.10004179 29.03960514
  156 1 48.99065480 23.94221596 2.23672260
  157 1 48.99065480 23.94221596 4.78937808
  158 1 48.99065480 23.94221596 7.34203356
  159 1 48.99065480 23.94221596 9.89468904
  160 1 48.99065480 23.94221596 12.44734452
  161 1 48.99065480 23.94221596 15.00000000
  162 1 48.99065480 23.94221596 17.55265548
  163 1 48.99065480 23.94221596 20.10531096
  164 1 48.99065480 23.94221596 22.65796644
  165 1 47.42787159 22.37864757 0.96039486
  166 1 47.42787159 22.37864757 3.51305034
  167 1 47.42787159 22.37864757 6.06570582
  168 1 47.42787159 22.37864757 8.61836130
  169 1 47.42787159 22.37864757 11.17101678
  170 1 47.42787159 22.37864757 13.72367226
  171 1 47.42787159 22.37864757 16.27632774
  172 1 47.42787159 22.37864757 18.82898322
  173 1 47.42787159 22.37864757 21.38163870
  174 1 47.42787159 22.37864757 23.93429418
  175 1 45.86508837 20.81507917 2.23672260
  176 1 45.86508837 20.81507917 4.78937808
  177 1 45.86508837 20.81507917 7.34203356
  178 1 45.86508837 20.81507917 9.89468904
  179 1 45.86508837 20.81507917 12.44734452
  180 1 45.86508837 20.81507917 15.00000000
  181 1 45.86508837 20.81507917 17.55265548
  182 1 45.86508837 20.81507917 20.10531096
  183 1 45.86508837 20.81507917 22.65796644
  184 1 45.86508837 20.81507917 25.21062192
  185 1 44.30230515 19.25151078 0.96039486
  186 1 44.30230515 19.25151078 3.51305034
  187 1 44.30230515 19.25151078 6.06570582
  188 1 44.30230515 19.25151078 8.61836130
  189 1 44.30230515 19.25151078 11.17101678
  190 1 44.30230515 19.25151078 13.72367226
  191 1 44.30230515 19.25151078 16.27632774
  192 1 44.30230515 19.25151078 18.82898322
  193 1 44.30230515 19.25151078 21.38163870
  194 1 44.30230515 19.25151078 23.93429418
  195 1 44.30230515 19.25151078 26.48694966
  196 1 42.73952194 17.68794239 2.23672260
  197 1 42.73952194 17.68794239 4.78937808
  198 1 42.73952194 17.68794239 7.34203356
  199 1 42.73952194 17.68794239 9.89468904
  200 1 42.73952194 17.68794239 12.44734452
  201 1 42.73952194 17.68794239 15.00000000
  202 1 42.73952194 17.68794239 17.55265548
  203 1 42.73952194 17.68794239 20.10531096
  204 1 42.73952194 17.68794239 22.65796644
  205 1 42.73952194 17.68794239 25.21062192
  206 1 42.73952194 17.68794239 27.76327740
  207 1 41.17673872 16.12437400 0.96039486
  208 1 41.17673872 16.12437400 3.51305034
  209 1 41.17673872 16.12437400 6.06570582
  210 1 41.17673872 16.12437400 8.61836130
  211 1 41.17673872 16.12437400 11.17101678
  212 1 41.17673872 16.12437400 13.72367226
  213 1 41.17673872 16.12437400 16.27632774
  214 1 41.17673872 16.12437400 18.82898322
  215 1 41.17673872 16.12437400 21.38163870
  216 1 41.17673872 16.12437400 23.93429418
  217 1 41.17673872 16.12437400 26.48694966
  218 1 41.17673872 16.12437400 29.03960514
  219 1 39.61395550 14.56080561 2.23672260
  220 1 39.61395550 14.56080561 4.78937808
  221 1 39.61395550 14.56080561 7.34203356
  222 1 39.61395550 14.56080561 9.89468904
  223 1 39.61395550 14.56080561 12.44734452
  224 1 39.61395550 14.56080561 15.00000000
  225 1 39.61395550 14.56080561 17.55265548
  226 1 39.61395550 14.56080561 20.10531096
  227 1 39.61395550 14.56080561 22.65796644
  228 1 39.61395550 14.56080561 25.21062192
  229 1 39.61395550 14.56080561 27.76327740
  230 1 38.05117228 12.99723721 0.96039486
  231 1 38.05117228 12.99723721 3.51305034
  232 1 38.05117228 12.99723721 6.06570582
  233 1 38.05117228 12.99723721 8.61836130
  234 1 38.05117228 12.99723721 11.17101678
  235 1 38.05117228 12.99723721 13.72367226
  236 1 38.05117228 12.99723721 16.27632774
  237 1 38.05117228 12.99723721 18.82898322
  238 1 38.05117228 12.99723721 21.38163870
  239 1 38.05117228 12.99723721 23.93429418
  240 1 38.05117228 12.99723721 26.48694966
  241 1 38.05117228 12.99723721 29.03960514
  242 1 36.48838907 11.43366882 2.23672260
  243 1 36.48838907 11.43366882 4.78937808
  244 1 36.48838907 11.43366882 7.34203356
  245 1 36.48838907 11.43366882 9.89468904
  246 1 36.48838907 11.43366882 12.44734452
  247 1 36.48838907 11.43366882 15.00000000
  248 1 36.48838907 11.43366882 17.55265548
  249 1 36.48838907 11.43366882 20.10531096
  250 1 36.48838907 11.43366882 22.65796644
  251 1 36.48838907 11.43366882 25.21062192
  252 1 36.48838907 11.43366882 27.76327740
  253 1 34.92560585 9.87010043 0.96039486
  254 1 34.92560585 9.87010043 3.51305034
  255 1 34.92560585 9.87010043 6.06570582
  256 1 34.92560585 9.87010043 8.61836130
  257 1 34.92560585 9.87010043 11.17101678
  258 1 34.92560585 9.87010043 13.72367226
  259 1 34.92560585 9.87010043 16.27632774
  260 1 34.92560585 9.87010043 18.82898322
  261 1 34.92560585 9.87010043 21.38163870
  262 1 34.92560585 9.87010043 23.93429418
  263 1 34.92560585 9.87010043 26.48694966
  264 1 34.92560585 9.87010043 29.03960514
  265 1 33.36282263 8.30653204 2.23672260
  266 1 33.36282263 8.30653204 4.78937808
  267 1 33.36282263 8.30653204 7.34203356
  268 1 33.36282263 8.30653204 9.89468904
  269 1 33.36282263 8.30653204 12.44734452
  270 1 33.36282263 8.30653204 15.00000000
  271 1 33.36282263 8.30653204 17.55265548
  272 1 33.36282263 8.30653204 20.10531096
  273 1 33.36282263 8.30653204 22.65796644
  274 1 33.36282263 8.30653204 25.21062192
  275 1 33.36282263 8.30653204 27.76327740
  276 1 31.80003942 6.74296365 0.96039486
  277 1 31.80003942 6.74296365 3.51305034
  278 1 31.80003942 6.74296365 6.06570582
  279 1 31.80003942 6.74296365 8.61836130
  280 1 31.80003942 6.74296365 11.17101678
  281 1 31.80003942 6.74296365 13.72367226
  282 1 31.80003942 6.74296365 16.27632774
  283 1 31.80003942 6.74296365 18.82898322
  284 1 31.80003942 6.74296365 21.38163870
  285 1 31.80003942 6.74296365 23.93429418
  286 1 31.80003942 6.74296365 26.48694966
  287 1 31.80003942 6.74296365 29.03960514
  288 1 30.23725620 5.17939525 2.23672260
  289 1 30.23725620 5.17939525 4.78937808
  290 1 30.23725620 5.17939525 7.34203356
  291 1 30.23725620 5.17939525 9.89468904
  292 1 30.23725620 5.17939525 12.44734452
  293 1 30.23725620 5.17939525 15.00000000
  294 1 30.23725620 5.17939525 17.55265548
  295 1 30.23725620 5.17939525 20.10531096
  296 1 30.23725620 5.17939525 22.65796644
  297 1 30.23725620 5.17939525 25.21062192
  298 1 30.23725620 5.17939525 27.76327740
  299 1 28.67447298 3.61582686 0.96039486
  300 1 28.67447298 3.61582686 3.51305034
  301 1 28.67447298 3.61582686 6.06570582
  302 1 28.67447298 3.61582686 8.61836130
  303 1 28.67447298 3.61582686 11.17101678
  304 1 28.67447298 3.61582686 13.72367226
  305 1 28.67447298 3.61582686 16.27632774
  306 1 28.67447298 3.61582686 18.82898322
  307 1 28.67447298 3.61582686 21.38163870
  308 1 28.67447298 3.61582686 23.93429418
  309 1 28.67447298 3.61582686 26.48694966
  310 1 28.67447298 3.61582686 29.03960514
  311 1 27.11168976 2.05225847 2.23672260
  312 1 27.11168976 2.05225847 4.78937808
  313 1 27.11168976 2.05225847 7.34203356
  314 1 27.11168976 2.05225847 9.89468904
  315 1 27.11168976 2.05225847 12.44734452
  316 1 27.11168976 2.05225847 15.00000000
  317 1 27.11168976 2.05225847 17.55265548
  318 1 27.11168976 2.05225847 20.10531096
  319 1 27.11168976 2.05225847 22.65796644
  320 1 27.11168976 2.05225847 25.21062192
  321 1 27.11168976 2.05225847 27.76327740
  322 1 48.55836386 26.45800103 2.23672260
  323 1 48.55836386 26.45800103 4.78937808
  324 1 48.55836386 26.45800103 7.34203356
  325 1 48.55836386 26.45800103 9.89468904
  326 1 48.55836386 26.45800103 12.44734452
  327 1 48.55836386 26.45800103 15.00000000
  328 1 48.55836386 26.45800103 17.55265548
  329 1 48.55836386 26.45800103 20.10531096
  330 1 48.55836386 26.45800103 22.65796644
  331 1 46.99558065 24.89443264 0.96039486
  332 1 46.99558065 24.89443264 3.51305034
  333 1 46.99558065 24.89443264 6.06570582
  334 1 46.99558065 24.89443264 8.61836130
  335 1 46.99558065 24.89443264 11.17101678
  336 1 46.99558065 24.89443264 13.72367226
  337 1 46.99558065 24.89443264 16.27632774
  338 1 46.99558065 24.89443264 18.82898322
  339 1 46.99558065 24.89443264 21.38163870
  340 1 46.99558065 24.89443264 23.93429418
  341 1 45.43279743 23.33086425 2.23672260
  342 1 45.43279743 23.33086425 4.78937808
  343 1 45.43279743 23.33086425 7.34203356
  344 1 45.43279743 23.33086425 9.89468904
  345 1 45.43279743 23.33086425 12.44734452
  346 1 45.43279743 23.33086425 15.00000000
  347 1 45.43279743 23.33086425 17.55265548
  348 1 45.43279743 23.33086425 20.10531096
  349 1 45.43279743 23.33086425 22.65796644
  350 1 45.43279743 23.33086425 25.21062192
  351 1 43.87001421 21.76729586 0.96039486
  352 1 43.87001421 21.76729586 3.51305034
  353 1 43.87001421 21.76729586 6.06570582
  354 1 43.87001421 21.76729586 8.61836130
  355 1 43.87001421 21.76729586 11.17101678
  356 1 43.87001421 21.76729586 13.72367226
  357 1 43.87001421 21.76729586 16.27632774
  358 1 43.87001421 21.76729586 18.82898322
  359 1 43.87001421 21.76729586 21.38163870
  360 1 43.87001421 21.76729586 23.93429418
  361 1 43.87001421 21.76729586 26.48694966
  362 1 42.30723100 20.20372746 2.23672260
  363 1 42.30723100 20.20372746 4.78937808
  364 1 42.30723100 20.20372746 7.34203356
  365 1 42.30723100 20.20372746 9.89468904
  366 1 42.30723100 20.20372746 12.44734452
  367 1 42.30723100 20.20372746 15.00000000
  368 1 42.30723100 20.20372746 17.55265548
  369 1 42.30723100 20.20372746 20.10531096
  370 1 42.30723100 20.20372746 22.65796644
  371 1 42.30723100 20.20372746 25.21062192
  372 1 42.30723100 20.20372746 27.76327740
  373 1 40.74444778 18.64015907 0.96039486
  374 1 40.74444778 18.64015907 3.51305034
  375 1 40.74444778 18.64015907 6.06570582
  376 1 40.74444778 18.64015907 8.61836130
  377 1 40.74444778 18.64015907 11.17101678
  378 1 40.74444778 18.64015907 13.72367226
  379 1 40.74444778 18.64015907 16.27632774
  380 1 40.74444778 18.64015907 18.82898322
  381 1 40.74444778 18.64015907 21.38163870
  382 1 40.74444778 18.64015907 23.93429418
  383 1 40.74444778 18.64015907 26.48694966
  384 1 40.74444778 18.64015907 29.03960514
  385 1 39.18166456 17.07659068 2.23672260
  386 1 39.18166456 17.07659068 4.78937808
  387 1 39.18166456 17.07659068 7.34203356
  388 1 39.18166456 17.07659068 9.89468904
  389 1 39.18166456 17.07659068 12.44734452
  390 1 39.18166456 17.07659068 15.00000000
  391 1 39.18166456 17.07659068 17.55265548
  392 1 39.18166456 17.07659068 20.10531096
  393 1 39.18166456 17.07659068 22.65796644
  394 1 39.18166456 17.07659068 25.21062192
  395 1 39.18166456 17.07659068 27.76327740
  396 1 37.61888135 15.51302229 0.96039486
  397 1 37.61888135 15.51302229 3.51305034
  398 1 37.61888135 15.51302229 6.06570582
  399 1 37.61888135 15.51302229 8.61836130
  400 1 37.61888135 15.51302229 11.17101678
  401 1 37.61888135 15.51302229 13.72367226
  402 1 37.61888135 15.51302229 16.27632774
  403 1 37.61888135 15.51302229 18.82898322
  404 1 37.61888135 15.51302229 21.38163870
  405 1 37.61888135 15.51302229 23.93429418
  406 1 37.61888135 15.51302229 26.48694966
  407 1 37.61888135 15.51302229 29.03960514
  408 1 36.05609813 13.94945390 2.23672260
  409 1 36.05609813 13.94945390 4.78937808
  410 1 36.05609813 13.94945390 7.34203356
  411 1 36.05609813 13.94945390 9.89468904
  412 1 36.05609813 13.94945390 12.44734452
  413 1 36.05609813 13.94945390 15.00000000
  414 1 36.05609813 13.94945390 17.55265548
  415 1 36.05609813 13.94945390 20.10531096
  416 1 36.05609813 13.94945390 22.65796644
  417 1 36.05609813 13.94945390 25.21062192
  418 1 36.05609813 13.94945390 27.76327740
  419 1 34.49331491 12.38588550 0.96039486
  420 1 34.49331491 12.38588550 3.51305034
  421 1 34.49331491 12.38588550 6.06570582
  422 1 34.49331491 12.38588550 8.61836130
  423 1 34.49331491 12.38588550 11.17101678
  424 1 34.49331491 12.38588550 13.72367226
  425 1 34.49331491 12.38588550 16.27632774
  426 1 34.49331491 12.38588550 18.82898322
  427 1 34.49331491 12.38588550 21.38163870
  428 1 34.49331491 12.38588550 23.93429418
  429 1 34.49331491 12.38588550 26.48694966
  430 1 34.49331491 12.38588550 29.03960514
  431 1 32.93053169 10.82231711 2.23672260
  432 1 32.93053169 10.82231711 4.78937808
  433 1 32.93053169 10.82231711 7.34203356
  434 1 32.93053169 10.82231711 9.89468904
  435 1 32.93053169 10.82231711 12.44734452
  436 1 32.93053169 10.82231711 15.00000000
  437 1 32.93053169 10.82231711 17.55265548
  438 1 32.93053169 10.82231711 20.10531096
  439 1 32.93053169 10.82231711 22.65796644
  440 1 32.93053169 10.82231711 25.21062192
  441 1 32.93053169 10.82231711 27.76327740
  442 1 31.36774848 9.25874872 0.96039486
  443 1 31.36774848 9.25874872 3.51305034
  444 1 31.36774848 9.25874872 6.06570582
  445 1 31.36774848 9.25874872 8.61836130
  446 1 31.36774848 9.25874872 11.17101678
  447 1 31.36774848 9.25874872 13.72367226
  448 1 31.36774848 9.25874872 16.27632774
  449 1 31.36774848 9.25874872 18.82898322
  450 1 31.36774848 9.25874872 21.38163870
  451 1 31.36774848 9.25874872 23.93429418
  452 1 31.36774848 9.25874872 26.48694966
  453 1 31.36774848 9.25874872 29.03960514
  454 1 29.80496526 7.69518033 2.23672260
  455 1 29.80496526 7.69518033 4.78937808
  456 1 29.80496526 7.69518033 7.34203356
  457 1 29.80496526 7.69518033 9.89468904
  458 1 29.80496526 7.69518033 12.44734452
  459 1 29.80496526 7.69518033 15.00000000
  460 1 29.80496526 7.69518033 17.55265548
  461 1 29.80496526 7.69518033 20.10531096
  462 1 29.80496526 7.69518033 22.65796644
  463 1 29.80496526 7.69518033 25.21062192
  464 1 29.80496526 7.69518033 27.76327740
  465 1 28.24218204 6.13161194 0.96039486
  466 1 28.24218204 6.13161194 3.51305034
  467 1 28.24218204 6.13161194 6.06570582
  468 1 28.24218204 6.13161194 8.61836130
  469 1 28.24218204 6.13161194 11.17101678
  470 1 28.24218204 6.13161194 13.72367226
  471 1 28.24218204 6.13161194 16.27632774
  472 1 28.24218204 6.13161194 18.82898322
  473 1 28.24218204 6.13161194 21.38163870
  474 1 28.24218204 6.13161194 23.93429418
  475 1 28.24218204 6.13161194 26.48694966
  476 1 28.24218204 6.13161194 29.03960514
  477 1 26.67939883 4.56804354 2.23672260
  478 1 26.67939883 4.56804354 4.78937808
  479 1 26.67939883 4.56804354 7.34203356
  480 1 26.67939883 4.56804354 9.89468904
  481 1 26.67939883 4.56804354 12.44734452
  482 1 26.67939883 4.56804354 15.00000000
  483 1 26.67939883 4.56804354 17.55265548
  484 1 26.67939883 4.56804354 20.10531096
  485 1 26.67939883 4.56804354 22.65796644
  486 1 26.67939883 4.56804354 25.21062192
  487 1 26.67939883 4.56804354 27.76327740
  488 1 25.11661561 3.00447515 0.96039486
  489 1 25.11661561 3.00447515 3.51305034
  490 1 25.11661561 3.00447515 6.06570582
  491 1 25.11661561 3.00447515 8.61836130
  492 1 25.11661561 3.00447515 11.17101678
  493 1 25.11661561 3.00447515 13.72367226
  494 1 25.11661561 3.00447515 16.27632774
  495 1 25.11661561 3.00447515 18.82898322
  496 1 25.11661561 3.00447515 21.38163870
  497 1 25.11661561 3.00447515 23.93429418
  498 1 25.11661561 3.00447515 26.48694966
  499 1 25.11661561 3.00447515 29.03960514
  500 1 49.68885614 30.53735450 0.96039486
  501 1 49.68885614 30.53735450 3.51305034
  502 1 49.68885614 30.53735450 6.06570582
  503 1 49.68885614 30.53735450 8.61836130
  504 1 49.68885614 30.53735450 11.17101678
  505 1 49.68885614 30.53735450 13.72367226
  506 1 49.68885614 30.53735450 16.27632774
  507 1 49.68885614 30.53735450 18.82898322
  508 1 49.68885614 30.53735450 21.38163870
  509 1 48.12607293 28.97378611 2.23672260
  510 1 48.12607293 28.97378611 4.78937808
  511 1 48.12607293 28.97378611 7.34203356
  512 1 48.12607293 28.97378611 9.89468904
  513 1 48.12607293 28.97378611 12.44734452
  514 1 48.12607293 28.97378611 15.00000000
  515 1 48.12607293 28.97378611 17.55265548
  516 1 48.12607293 28.97378611 20.10531096
  517 1 48.12607293 28.97378611 22.65796644
  518 1 46.56328971 27.41021772 0.96039486
  519 1 46.56328971 27.41021772 3.51305034
  520 1 46.56328971 27.41021772 6.06570582
  521 1 46.56328971 27.41021772 8.61836130
  522 1 46.56328971 27.41021772 11.17101678
  523 1 46.56328971 27.41021772 13.72367226
  524 1 46.56328971 27.41021772 16.27632774
  525 1 46.56328971 27.41021772 18.82898322
  526 1 46.56328971 27.41021772 21.38163870
  527 1 46.56328971 27.41021772 23.93429418
  528 1 45.00050649 25.84664932 2.23672260
  529 1 45.00050649 25.84664932 4.78937808
  530 1 45.00050649 25.84664932 7.34203356
  531 1 45.00050649 25.84664932 9.89468904
  532 1 45.00050649 25.84664932 12.44734452
  533 1 45.00050649 25.84664932 15.00000000
  534 1 45.00050649 25.84664932 17.55265548
  535 1 45.00050649 25.84664932 20.10531096
  536 1 45.00050649 25.84664932 22.65796644
  537 1 45.00050649 25.84664932 25.21062192
  538 1 43.43772327 24.28308093 0.96039486
  539 1 43.43772327 24.28308093 3.51305034
  540 1 43.43772327 24.28308093 6.06570582
  541 1 43.43772327 24.28308093 8.61836130
  542 1 43.43772327 24.28308093 11.17101678
  543 1 43.43772327 24.28308093 13.72367226
  544 1 43.43772327 24.28308093 16.27632774
  545 1 43.43772327 24.28308093 18.82898322
  546 1 43.43772327 24.28308093 21.38163870
  547 1 43.43772327 24.28308093 23.93429418
  548 1 43.43772327 24.28308093 26.48694966
  549 1 41.87494006 22.71951254 2.23672260
  550 1 41.87494006 22.71951254 4.78937808
  551 1 41.87494006 22.71951254 7.34203356
  552 1 41.87494006 22.71951254 9.89468904
  553 1 41.87494006 22.71951254 12.44734452
  554 1 41.87494006 22.71951254 15.00000000
  555 1 41.87494006 22.71951254 17.55265548
  556 1 41.87494006 22.71951254 20.10531096
  557 1 41.87494006 22.71951254 22.65796644
  558 1 41.87494006 22.71951254 25.21062192
  559 1 41.87494006 22.71951254 27.76327740
  560 1 40.31215684 21.15594415 0.96039486
  561 1 40.31215684 21.15594415 3.51305034
  562 1 40.31215684 21.15594415 6.06570582
  563 1 40.31215684 21.15594415 8.61836130
  564 1 40.31215684 21.15594415 11.17101678
  565 1 40.31215684 21.15594415 13.72367226
  566 1 40.31215684 21.15594415 16.27632774
  567 1 40.31215684 21.15594415 18.82898322
  568 1 40.31215684 21.15594415 21.38163870
  569 1 40.31215684 21.15594415 23.93429418
  570 1 40.31215684 21.15594415 26.48694966
  571 1 40.31215684 21.15594415 29.03960514
  572 1 38.74937362 19.59237576 2.23672260
  573 1 38.74937362 19.59237576 4.78937808
  574 1 38.74937362 19.59237576 7.34203356
  575 1 38.74937362 19.59237576 9.89468904
  576 1 38.74937362 19.59237576 12.44734452
  577 1 38.74937362 19.59237576 15.00000000
  578 1 38.74937362 19.59237576 17.55265548
  579 1 38.74937362 19.59237576 20.10531096
  580 1 38.74937362 19.59237576 22.65796644
  581 1 38.74937362 19.59237576 25.21062192
  582 1 38.74937362 19.59237576 27.76327740
  583 1 37.18659041 18.02880736 0.96039486
  584 1 37.18659041 18.02880736 3.51305034
  585 1 37.18659041 18.02880736 6.06570582
  586 1 37.18659041 18.02880736 8.61836130
  587 1 37.18659041 18.02880736 11.17101678
  588 1 37.18659041 18.02880736 13.72367226
  589 1 37.18659041 18.02880736 16.27632774
  590 1 37.18659041 18.02880736 18.82898322
  591 1 37.18659041 18.02880736 21.38163870
  592 1 37.18659041 18.02880736 23.93429418
  593 1 37.18659041 18.02880736 26.48694966
  594 1 37.18659041 18.02880736 29.03960514
  595 1 35.62380719 16.46523897 2.23672260
  596 1 35.62380719 16.46523897 4.78937808
  597 1 35.62380719 16.46523897 7.34203356
  598 1 35.62380719 16.46523897 9.89468904
  599 1 35.62380719 16.46523897 12.44734452
  600 1 35.62380719 16.46523897 15.00000000
  601 1 35.62380719 16.46523897 17.55265548
  602 1 35.62380719 16.46523897 20.10531096
  603 1 35.62380719 16.46523897 22.65796644
  604 1 35.62380719 16.46523897 25.21062192
  605 1 35.62380719 16.46523897 27.76327740
  606 1 34.06102397 14.90167058 0.96039486
  607 1 34.06102397 14.90167058 3.51305034
  608 1 34.06102397 14.90167058 6.06570582
  609 1 34.06102397 14.90167058 8.61836130
  610 1 34.06102397 14.90167058 11.17101678
  611 1 34.06102397 14.90167058 13.72367226
  612 1 34.06102397 14.90167058 16.27632774
  613 1 34.06102397 14.90167058 18.82898322
  614 1 34.06102397 14.90167058 21.38163870
  615 1 34.06102397 14.90167058 23.93429418
  616 1 34.06102397 14.90167058 26.48694966
  617 1 34.06102397 14.90167058 29.03960514
  618 1 32.49824076 13.33810219 2.23672260
  619 1 32.49824076 13.33810219 4.78937808
  620 1 32.49824076 13.33810219 7.34203356
  621 1 32.49824076 13.33810219 9.89468904
  622 1 32.49824076 13.33810219 12.44734452
  623 1 32.49824076 13.33810219 15.00000000
  624 1 32.49824076 13.33810219 17.55265548
  625 1 32.49824076 13.33810219 20.10531096
  626 1 32.49824076 13.33810219 22.65796644
  627 1 32.49824076 13.33810219 25.21062192
  628 1 32.49824076 13.33810219 27.76327740
  629 1 30.93545754 11.77453380 0.96039486
  630 1 30.93545754 11.77453380 3.51305034
  631 1 30.93545754 11.77453380 6.06570582
  632 1 30.93545754 11.77453380 8.61836130
  633 1 30.93545754 11.77453380 11.17101678
  634 1 30.93545754 11.77453380 13.72367226
  635 1 30.93545754 11.77453380 16.27632774
  636 1 30.93545754 11.77453380 18.82898322
  637 1 30.93545754 11.77453380 21.38163870
  638 1 30.93545754 11.77453380 23.93429418
  639 1 30.93545754 11.77453380 26.48694966
  640 1 30.93545754 11.77453380 29.03960514
  641 1 29.37267432 10.21096540 2.23672260
  642 1 29.37267432 10.21096540 4.78937808
  643 1 29.37267432 10.21096540 7.34203356
  644 1 29.37267432 10.21096540 9.89468904
  645 1 29.37267432 10.21096540 12.44734452
  646 1 29.37267432 10.21096540 15.00000000
  647 1 29.37267432 10.21096540 17.55265548
  648 1 29.37267432 10.21096540 20.10531096
  649 1 29.37267432 10.21096540 22.65796644
  650 1 29.37267432 10.21096540 25.21062192
  651 1 29.37267432 10.21096540 27.76327740
  652 1 27.80989110 8.64739701 0.96039486
  653 1 27.80989110 8.64739701 3.51305034
  654 1 27.80989110 8.64739701 6.06570582
  655 1 27.80989110 8.64739701 8.61836130
  656 1 27.80989110 8.64739701 11.17101678
  657 1 27.80989110 8.64739701 13.72367226
  658 1 27.80989110 8.64739701 16.27632774
  659 1 27.80989110 8.64739701 18.82898322
  660 1 27.80989110 8.64739701 21.38163870
  661 1 27.80989110 8.64739701 23.93429418
  662 1 27.80989110 8.64739701 26.48694966
  663 1 27.80989110 8.64739701 29.03960514
  664 1 26.24710789 7.08382862 2.23672260
  665 1 26.24710789 7.08382862 4.78937808
  666 1 26.24710789 7.08382862 7.34203356
  667 1 26.24710789 7.08382862 9.89468904
  668 1 26.24710789 7.08382862 12.44734452
  669 1 26.24710789 7.08382862 15.00000000
  670 1 26.24710789 7.08382862 17.55265548
  671 1 26.24710789 7.08382862 20.10531096
  672 1 26.24710789 7.08382862 22.65796644
  673 1 26.24710789 7.08382862 25.21062192
  674 1 26.24710789 7.08382862 27.76327740
  675 1 24.68432467 5.52026023 0.96039486
  676 1 24.68432467 5.52026023 3.51305034
  677 1 24.68432467 5.52026023 6.06570582
  678 1 24.68432467 5.52026023 8.61836130
  679 1 24.68432467 5.52026023 11.17101678
  680 1 24.68432467 5.52026023 13.72367226
  681 1 24.68432467 5.52026023 16.27632774
  682 1 24.68432467 5.52026023 18.82898322
  683 1 24.68432467 5.52026023 21.38163870
  684 1 24.68432467 5.52026023 23.93429418
  685 1 24.68432467 5.52026023 26.48694966
  686 1 24.68432467 5.52026023 29.03960514
  687 1 23.12154145 3.95669184 2.23672260
  688 1 23.12154145 3.95669184 4.78937808
  689 1 23.12154145 3.95669184 7.34203356
  690 1 23.12154145 3.95669184 9.89468904
  691 1 23.12154145 3.95669184 12.44734452