ITEM: TIMESTEP
0
ITEM: NUMBER OF ATOMS
8140
ITEM: BOX BOUNDS pp pp pp
0.00000000 100.00000000
0.00000000 50.00000000
0.00000000 30.00000000
ITEM: ATOMS id type x y z grain_id euler_angle_1 euler_angle_2 euler_angle_3
1 1 49.42294574 21.42643088 2.23672260 1 45.000000 90.000000 -80.250000
2 1 49.42294574 21.42643088 4.78937808 1 45.000000 90.000000 -80.250000
3 1 49.42294574 21.42643088 7.34203356 1 45.000000 90.000000 -80.250000
4 1 49.42294574 21.42643088 9.89468904 1 45.000000 90.000000 -80.250000
5 1 49.42294574 21.42643088 12.44734452 1 45.000000 90.000000 -80.250000
6 1 49.42294574 21.42643088 15.00000000 1 45.000000 90.000000 -80.250000
7 1 49.42294574 21.42643088 17.55265548 1 45.000000 90.000000 -80.250000
8 1 49.42294574 21.42643088 20.10531096 1 45.000000 90.000000 -80.250000
9 1 49.42294574 21.42643088 22.65796644 1 45.000000 90.000000 -80.250000
10 1 47.86016253 19.86286249 0.96039486 1 45.000000 90.000000 -80.250000
11 1 47.86016253 19.86286249 3.51305034 1 45.000000 90.000000 -80.250000
12 1 47.86016253 19.86286249 6.06570582 1 45.000000 90.000000 -80.250000
13 1 47.86016253 19.86286249 8.61836130 1 45.000000 90.000000 -80.250000
14 1 47.86016253 19.86286249 11.17101678 1 45.000000 90.000000 -80.250000
15 1 47.86016253 19.86286249 13.72367226 1 45.000000 90.000000 -80.250000
16 1 47.86016253 19.86286249 16.27632774 1 45.000000 90.000000 -80.250000
17 1 47.86016253 19.86286249 18.82898322 1 45.000000 90.000000 -80.250000
18 1 47.86016253 19.86286249 21.38163870 1 45.000000 90.000000 -80.250000
19 1 47.86016253 19.86286249 23.93429418 1 45.000000 90.000000 -80.250000
20 1 46.29737931 18.29929410 2.23672260 1 45.000000 90.000000 -80.250000
21 1 46.29737931 18.29929410 4.78937808 1 45.000000 90.000000 -80.250000
22 1 46.29737931 18.29929410 7.34203356 1 45.000000 90.000000 -80.250000
23 1 46.29737931 18.29929410 9.89468904 1 45.000000 90.000000 -80.250000
24 1 46.29737931 18.29929410 12.44734452 1 45.000000 90.000000 -80.250000
25 1 46.29737931 18.29929410 15.00000000 1 45.000000 90.000000 -80.250000
26 1 46.29737931 18.29929410 17.55265548 1 45.000000 90.000000 -80.250000
27 1 46.29737931 18.29929410 20.10531096 1 45.000000 90.000000 -80.250000
28 1 46.29737931 18.29929410 22.65796644 1 45.000000 90.000000 -80.250000
29 1 46.29737931 18.29929410 25.21062192 1 45.000000 90.000000 -80.250000
30 1 44.73459609 16.73572571 0.96039486 1 45.000000 90.000000 -80.250000
31 1 44.73459609 16.73572571 3.51305034 1 45.000000 90.000000 -80.250000
32 1 44.73459609 16.73572571 6.06570582 1 45.000000 90.000000 -80.250000
33 1 44.73459609 16.73572571 8.61836130 1 45.000000 90.000000 -80.250000
34 1 44.73459609 16.73572571 11.17101678 1 45.000000 90.000000 -80.250000
35 1 44.73459609 16.73572571 13.72367226 1 45.000000 90.000000 -80.250000
36 1 44.73459609 16.73572571 16.27632774 1 45.000000 90.000000 -80.250000
37 1 44.73459609 16.73572571 18.82898322 1 45.000000 90.000000 -80.250000
38 1 44.73459609 16.73572571 21.38163870 1 45.000000 90.000000 -80.250000
39 1 44.73459609 16.73572571 23.93429418 1 45.000000 90.000000 -80.250000
40 1 44.73459609 16.73572571 26.48694966 1 45.000000 90.000000 -80.250000
41 1 43.17181287 15.17215731 2.23672260 1 45.000000 90.000000 -80.250000
42 1 43.17181287 15.17215731 4.78937808 1 45.000000 90.000000 -80.250000
43 1 43.17181287 15.17215731 7.34203356 1 45.000000 90.000000 -80.250000
44 1 43.17181287 15.17215731 9.89468904 1 45.000000 90.000000 -80.250000
45 1 43.17181287 15.17215731 12.44734452 1 45.000000 90.000000 -80.250000
46 1 43.17181287 15.17215731 15.00000000 1 45.000000 90.000000 -80.250000
47 1 43.17181287 15.17215731 17.55265548 1 45.000000 90.000000 -80.250000
48 1 43.17181287 15.17215731 20.10531096 1 45.000000 90.000000 -80.250000
49 1 43.17181287 15.17215731 22.65796644 1 45.000000 90.000000 -80.250000
50 1 43.17181287 15.17215731 25.21062192 1 45.000000 90.000000 -80.250000
51 1 43.17181287 15.17215731 27.76327740 1 45.000000 90.000000 -80.250000
52 1 41.60902966 13.60858892 0.96039486 1 45.000000 90.000000 -80.250000
53 1 41.60902966 13.60858892 3.51305034 1 45.000000 90.000000 -80.250000
54 1 41.60902966 13.60858892 6.06570582 1 45.000000 90.000000 -80.250000
55 1 41.60902966 13.60858892 8.61836130 1 45.000000 90.000000 -80.250000
56 1 41.60902966 13.60858892 11.17101678 1 45.000000 90.000000 -80.250000
57 1 41.60902966 13.60858892 13.72367226 1 45.000000 90.000000 -80.250000
58 1 41.60902966 13.60858892 16.27632774 1 45.000000 90.000000 -80.250000
59 1 41.60902966 13.60858892 18.82898322 1 45.000000 90.000000 -80.250000
60 1 41.60902966 13.60858892 21.38163870 1 45.000000 90.000000 -80.250000
61 1 41.60902966 13.60858892 23.93429418 1 45.000000 90.000000 -80.250000
62 1 41.60902966 13.60858892 26.48694966 1 45.000000 90.000000 -80.250000
63 1 41.60902966 13.60858892 29.03960514 1 45.000000 90.000000 -80.250000
64 1 40.04624644 12.04502053 2.23672260 1 45.000000 90.000000 -80.250000
65 1 40.04624644 12.04502053 4.78937808 1 45.000000 90.000000 -80.250000
66 1 40.04624644 12.04502053 7.34203356 1 45.000000 90.000000 -80.250000
67 1 40.04624644 12.04502053 9.89468904 1 45.000000 90.000000 -80.250000
68 1 40.04624644 12.04502053 12.44734452 1 45.000000 90.000000 -80.250000
69 1 40.04624644 12.04502053 15.00000000 1 45.000000 90.000000 -80.250000
70 1 40.04624644 12.04502053 17.55265548 1 45.000000 90.000000 -80.250000
71 1 40.04624644 12.04502053 20.10531096 1 45.000000 90.000000 -80.250000
72 1 40.04624644 12.04502053 22.65796644 1 45.000000 90.000000 -80.250000
73 1 40.04624644 12.04502053 25.21062192 1 45.000000 90.000000 -80.250000
74 1 40.04624644 12.04502053 27.76327740 1 45.000000 90.000000 -80.250000
75 1 38.48346322 10.48145214 0.96039486 1 45.000000 90.000000 -80.250000
76 1 38.48346322 10.48145214 3.51305034 1 45.000000 90.000000 -80.250000
77 1 38.48346322 10.48145214 6.06570582 1 45.000000 90.000000 -80.250000
78 1 38.48346322 10.48145214 8.61836130 1 45.000000 90.000000 -80.250000
79 1 38.48346322 10.48145214 11.17101678 1 45.000000 90.000000 -80.250000
80 1 38.48346322 10.48145214 13.72367226 1 45.000000 90.000000 -80.250000
81 1 38.48346322 10.48145214 16.27632774 1 45.000000 90.000000 -80.250000
82 1 38.48346322 10.48145214 18.82898322 1 45.000000 90.000000 -80.250000
83 1 38.48346322 10.48145214 21.38163870 1 45.000000 90.000000 -80.250000
84 1 38.48346322 10.48145214 23.93429418 1 45.000000 90.000000 -80.250000
85 1 38.48346322 10.48145214 26.48694966 1 45.000000 90.000000 -80.250000
86 1 38.48346322 10.48145214 29.03960514 1 45.000000 90.000000 -80.250000
87 1 36.92068001 8.91788375 2.23672260 1 45.000000 90.000000 -80.250000
88 1 36.92068001 8.91788375 4.78937808 1 45.000000 90.000000 -80.250000
89 1 36.92068001 8.91788375 7.34203356 1 45.000000 90.000000 -80.250000
90 1 36.92068001 8.91788375 9.89468904 1 45.000000 90.000000 -80.250000
91 1 36.92068001 8.91788375 12.44734452 1 45.000000 90.000000 -80.250000
92 1 36.92068001 8.91788375 15.00000000 1 45.000000 90.000000 -80.250000
93 1 36.92068001 8.91788375 17.55265548 1 45.000000 90.000000 -80.250000
94 1 36.92068001 8.91788375 20.10531096 1 45.000000 90.000000 -80.250000
95 1 36.92068001 8.91788375 22.65796644 1 45.000000 90.000000 -80.250000
96 1 36.92068001 8.91788375 25.21062192 1 45.000000 90.000000 -80.250000
97 1 36.92068001 8.91788375 27.76327740 1 45.000000 90.000000 -80.250000
98 1 35.35789679 7.35431535 0.96039486 1 45.000000 90.000000 -80.250000
99 1 35.35789679 7.35431535 3.51305034 1 45.000000 90.000000 -80.250000
100 1 35.35789679 7.35431535 6.06570582 1 45.000000 90.000000 -80.250000
101 1 35.35789679 7.35431535 8.61836130 1 45.000000 90.000000 -80.250000
102 1 35.35789679 7.35431535 11.17101678 1 45.000000 90.000000 -80.250000
103 1 35.35789679 7.35431535 13.72367226 1 45.000000 90.000000 -80.250000
104 1 35.35789679 7.35431535 16.27632774 1 45.000000 90.000000 -80.250000
105 1 35.35789679 7.35431535 18.82898322 1 45.000000 90.000000 -80.250000
106 1 35.35789679 7.35431535 21.38163870 1 45.000000 90.000000 -80.250000
107 1 35.35789679 7.35431535 23.93429418 1 45.000000 90.000000 -80.250000
108 1 35.35789679 7.35431535 26.48694966 1 45.000000 90.000000 -80.250000
109 1 35.35789679 7.35431535 29.03960514 1 45.000000 90.000000 -80.250000
110 1 33.79511357 5.79074696 2.23672260 1 45.000000 90.000000 -80.250000
111 1 33.79511357 5.79074696 4.78937808 1 45.000000 90.000000 -80.250000
112 1 33.79511357 5.79074696 7.34203356 1 45.000000 90.000000 -80.250000
113 1 33.79511357 5.79074696 9.89468904 1 45.000000 90.000000 -80.250000
114 1 33.79511357 5.79074696 12.44734452 1 45.000000 90.000000 -80.250000
115 1 33.79511357 5.79074696 15.00000000 1 45.000000 90.000000 -80.250000
116 1 33.79511357 5.79074696 17.55265548 1 45.000000 90.000000 -80.250000
117 1 33.79511357 5.79074696 20.10531096 1 45.000000 90.000000 -80.250000
118 1 33.79511357 5.79074696 22.65796644 1 45.000000 90.000000 -80.250000
119 1 33.79511357 5.79074696 25.21062192 1 45.000000 90.000000 -80.250000
120 1 33.79511357 5.79074696 27.76327740 1 45.000000 90.000000 -80.250000
121 1 32.23233036 4.22717857 0.96039486 1 45.000000 90.000000 -80.250000
122 1 32.23233036 4.22717857 3.51305034 1 45.000000 90.000000 -80.250000
123 1 32.23233036 4.22717857 6.06570582 1 45.000000 90.000000 -80.250000
124 1 32.23233036 4.22717857 8.61836130 1 45.000000 90.000000 -80.250000
125 1 32.23233036 4.22717857 11.17101678 1 45.000000 90.000000 -80.250000
126 1 32.23233036 4.22717857 13.72367226 1 45.000000 90.000000 -80.250000
127 1 32.23233036 4.22717857 16.27632774 1 45.000000 90.000000 -80.250000
128 1 32.23233036 4.22717857 18.82898322 1 45.000000 90.000000 -80.250000
129 1 32.23233036 4.22717857 21.38163870 1 45.000000 90.000000 -80.250000
130 1 32.23233036 4.22717857 23.93429418 1 45.000000 90.000000 -80.250000
131 1 32.23233036 4.22717857 26.48694966 1 45.000000 90.000000 -80.250000
132 1 32.23233036 4.22717857 29.03960514 1 45.000000 90.000000 -80.250000
133 1 30.66954714 2.66361018 2.23672260 1 45.000000 90.000000 -80.250000
134 1 30.66954714 2.66361018 4.78937808 1 45.000000 90.000000 -80.250000
135 1 30.66954714 2.66361018 7.34203356 1 45.000000 90.000000 -80.250000
136 1 30.66954714 2.66361018 9.89468904 1 45.000000 90.000000 -80.250000
137 1 30.66954714 2.66361018 12.44734452 1 45.000000 90.000000 -80.250000
138 1 30.66954714 2.66361018 15.00000000 1 45.000000 90.000000 -80.250000
139 1 30.66954714 2.66361018 17.55265548 1 45.000000 90.000000 -80.250000
140 1 30.66954714 2.66361018 20.10531096 1 45.000000 90.000000 -80.250000
141 1 30.66954714 2.66361018 22.65796644 1 45.000000 90.000000 -80.250000
142 1 30.66954714 2.66361018 25.21062192 1 45.000000 90.000000 -80.250000
143 1 30.66954714 2.66361018 27.76327740 1 45.000000 90.000000 -80.250000
144 1 29.10676392 1.10004179 0.96039486 1 45.000000 90.000000 -80.250000
145 1 29.10676392 1.10004179 3.51305034 1 45.000000 90.000000 -80.250000
146 1 29.10676392 1.10004179 6.06570582 1 45.000000 90.000000 -80.250000
147 1 29.10676392 1.10004179 8.61836130 1 45.000000 90.000000 -80.250000
148 1 29.10676392 1.10004179 11.17101678 1 45.000000 90.000000 -80.250000
149 1 29.10676392 1.10004179 13.72367226 1 45.000000 90.000000 -80.250000
150 1 29.10676392 1.10004179 16.27632774 1 45.000000 90.000000 -80.250000
151 1 29.10676392 1.10004179 18.82898322 1 45.000000 90.000000 -80.250000
152 1 29.10676392 1.10004179 21.38163870 1 45.000000 90.000000 -80.250000
153 1 29.10676392 1.10004179 23.93429418 1 45.000000 90.000000 -80.250000
154 1 29.10676392 1.10004179 26.48694966 1 45.000000 90.000000 -80.250000
155 1 29.10676392 1.10004179 29.03960514 1 45.000000 90.000000 -80.250000
156 1 48.99065480 23.94221596 2.23672260 1 45.000000 90.000000 -80.250000
157 1 48.99065480 23.94221596 4.78937808 1 45.000000 90.000000 -80.250000
158 1 48.99065480 23.94221596 7.34203356 1 45.000000 90.000000 -80.250000
159 1 48.99065480 23.94221596 9.89468904 1 45.000000 90.000000 -80.250000
160 1 48.99065480 23.94221596 12.44734452 1 45.000000 90.000000 -80.250000
161 1 48.99065480 23.94221596 15.00000000 1 45.000000 90.000000 -80.250000
162 1 48.99065480 23.94221596 17.55265548 1 45.000000 90.000000 -80.250000
163 1 48.99065480 23.94221596 20.10531096 1 45.000000 90.000000 -80.250000
164 1 48.99065480 23.94221596 22.65796644 1 45.000000 90.000000 -80.250000
165 1 47.42787159 22.37864757 0.96039486 1 45.000000 90.000000 -80.250000
166 1 47.42787159 22.37864757 3.51305034 1 45.000000 90.000000 -80.250000
167 1 47.42787159 22.37864757 6.06570582 1 45.000000 90.000000 -80.250000
168 1 47.42787159 22.37864757 8.61836130 1 45.000000 90.000000 -80.250000
169 1 47.42787159 22.37864757 11.17101678 1 45.000000 90.000000 -80.250000
170 1 47.42787159 22.37864757 13.72367226 1 45.000000 90.000000 -80.250000
171 1 47.42787159 22.37864757 16.27632774 1 45.000000 90.000000 -80.250000
172 1 47.42787159 22.37864757 18.82898322 1 45.000000 90.000000 -80.250000
173 1 47.42787159 22.37864757 21.38163870 1 45.000000 90.000000 -80.250000
174 1 47.42787159 22.37864757 23.93429418 1 45.000000 90.000000 -80.250000
175 1 45.86508837 20.81507917 2.23672260 1 45.000000 90.000000 -80.250000
176 1 45.86508837 20.81507917 4.78937808 1 45.000000 90.000000 -80.250000
177 1 45.86508837 20.81507917 7.34203356 1 45.000000 90.000000 -80.250000
178 1 45.86508837 20.81507917 9.89468904 1 45.000000 90.000000 -80.250000
179 1 45.86508837 20.81507917 12.44734452 1 45.000000 90.000000 -80.250000
180 1 45.86508837 20.81507917 15.00000000 1 45.000000 90.000000 -80.250000
181 1 45.86508837 20.81507917 17.55265548 1 45.000000 90.000000 -80.250000
182 1 45.86508837 20.81507917 20.10531096 1 45.000000 90.000000 -80.250000
183 1 45.86508837 20.81507917 22.65796644 1 45.000000 90.000000 -80.250000
184 1 45.86508837 20.81507917 25.21062192 1 45.000000 90.000000 -80.250000
185 1 44.30230515 19.25151078 0.96039486 1 45.000000 90.000000 -80.250000
186 1 44.30230515 19.25151078 3.51305034 1 45.000000 90.000000 -80.250000
187 1 44.30230515 19.25151078 6.06570582 1 45.000000 90.000000 -80.250000
188 1 44.30230515 19.25151078 8.61836130 1 45.000000 90.000000 -80.250000
189 1 44.30230515 19.25151078 11.17101678 1 45.000000 90.000000 -80.250000
190 1 44.30230515 19.25151078 13.72367226 1 45.000000 90.000000 -80.250000
191 1 44.30230515 19.25151078 16.27632774 1 45.000000 90.000000 -80.250000
192 1 44.30230515 19.25151078 18.82898322 1 45.000000 90.000000 -80.250000
193 1 44.30230515 19.25151078 21.38163870 1 45.000000 90.000000 -80.250000
194 1 44.30230515 19.25151078 23.93429418 1 45.000000 90.000000 -80.250000
195 1 44.30230515 19.25151078 26.48694966 1 45.000000 90.000000 -80.250000
196 1 42.73952194 17.68794239 2.23672260 1 45.000000 90.000000 -80.250000
197 1 42.73952194 17.68794239 4.78937808 1 45.000000 90.000000 -80.250000
198 1 42.73952194 17.68794239 7.34203356 1 45.000000 90.000000 -80.250000
199 1 42.73952194 17.68794239 9.89468904 1 45.000000 90.000000 -80.250000
200 1 42.73952194 17.68794239 12.44734452 1 45.000000 90.000000 -80.250000
201 1 42.73952194 17.68794239 15.00000000 1 45.000000 90.000000 -80.250000
202 1 42.73952194 17.68794239 17.55265548 1 45.000000 90.000000 -80.250000
203 1 42.73952194 17.68794239 20.10531096 1 45.000000 90.000000 -80.250000
204 1 42.73952194 17.68794239 22.65796644 1 45.000000 90.000000 -80.250000
205 1 42.73952194 17.68794239 25.21062192 1 45.000000 90.000000 -80.250000
206 1 42.73952194 17.68794239 27.76327740 1 45.000000 90.000000 -80.250000
207 1 41.17673872 16.12437400 0.96039486 1 45.000000 90.000000 -80.250000
208 1 41.17673872 16.12437400 3.51305034 1 45.000000 90.000000 -80.250000
209 1 41.17673872 16.12437400 6.06570582 1 45.000000 90.000000 -80.250000
210 1 41.17673872 16.12437400 8.61836130 1 45.000000 90.000000 -80.250000
211 1 41.17673872 16.12437400 11.17101678 1 45.000000 90.000000 -80.250000
212 1 41.17673872 16.12437400 13.72367226 1 45.000000 90.000000 -80.250000
213 1 41.17673872 16.12437400 16.27632774 1 45.000000 90.000000 -80.250000
214 1 41.17673872 16.12437400 18.82898322 1 45.000000 90.000000 -80.250000
215 1 41.17673872 16.12437400 21.38163870 1 45.000000 90.000000 -80.250000
216 1 41.17673872 16.12437400 23.93429418 1 45.000000 90.000000 -80.250000
217 1 41.17673872 16.12437400 26.48694966 1 45.000000 90.000000 -80.250000
218 1 41.17673872 16.12437400 29.03960514 1 45.000000 90.000000 -80.250000
219 1 39.61395550 14.56080561 2.23672260 1 45.000000 90.000000 -80.250000
220 1 39.61395550 14.56080561 4.78937808 1 45.000000 90.000000 -80.250000
221 1 39.61395550 14.56080561 7.34203356 1 45.000000 90.000000 -80.250000
222 1 39.61395550 14.56080561 9.89468904 1 45.000000 90.000000 -80.250000
223 1 39.61395550 14.56080561 12.44734452 1 45.000000 90.000000 -80.250000
224 1 39.61395550 14.56080561 15.00000000 1 45.000000 90.000000 -80.250000
225 1 39.61395550 14.56080561 17.55265548 1 45.000000 90.000000 -80.250000
226 1 39.61395550 14.56080561 20.10531096 1 45.000000 90.000000 -80.250000
227 1 39.61395550 14.56080561 22.65796644 1 45.000000 90.000000 -80.250000
228 1 39.61395550 14.56080561 25.21062192 1 45.000000 90.000000 -80.250000
229 1 39.61395550 14.56080561 27.76327740 1 45.000000 90.000000 -80.250000
230 1 38.05117228 12.99723721 0.96039486 1 45.000000 90.000000 -80.250000
231 1 38.05117228 12.99723721 3.51305034 1 45.000000 90.000000 -80.250000
232 1 38.05117228 12.99723721 6.06570582 1 45.000000 90.000000 -80.250000
233 1 38.05117228 12.99723721 8.61836130 1 45.000000 90.000000 -80.250000
234 1 38.05117228 12.99723721 11.17101678 1 45.000000 90.000000 -80.250000
235 1 38.05117228 12.99723721 13.72367226 1 45.000000 90.000000 -80.250000
236 1 38.05117228 12.99723721 16.27632774 1 45.000000 90.000000 -80.250000
237 1 38.05117228 12.99723721 18.82898322 1 45.000000 90.000000 -80.250000
238 1 38.05117228 12.99723721 21.38163870 1 45.000000 90.000000 -80.250000
239 1 38.05117228 12.99723721 23.93429418 1 45.000000 90.000000 -80.250000
240 1 38.05117228 12.99723721 26.48694966 1 45.000000 90.000000 -80.250000
241 1 38.05117228 12.99723721 29.03960514 1 45.000000 90.000000 -80.250000
242 1 36.48838907 11.43366882 2.23672260 1 45.000000 90.000000 -80.250000
243 1 36.48838907 11.43366882 4.78937808 1 45.000000 90.000000 -80.250000
244 1 36.48838907 11.43366882 7.34203356 1 45.000000 90.000000 -80.250000
245 1 36.48838907 11.43366882 9.89468904 1 45.000000 90.000000 -80.250000
246 1 36.48838907 11.43366882 12.44734452 1 45.000000 90.000000 -80.250000
247 1 36.48838907 11.43366882 15.00000000 1 45.000000 90.000000 -80.250000
248 1 36.48838907 11.43366882 17.55265548 1 45.000000 90.000000 -80.250000
249 1 36.48838907 11.43366882 20.10531096 1 45.000000 90.000000 -80.250000
250 1 36.48838907 11.43366882 22.65796644 1 45.000000 90.000000 -80.250000
251 1 36.48838907 11.43366882 25.21062192 1 45.000000 90.000000 -80.250000
252 1 36.48838907 11.43366882 27.76327740 1 45.000000 90.000000 -80.250000
253 1 34.92560585 9.87010043 0.96039486 1 45.000000 90.000000 -80.250000
254 1 34.92560585 9.87010043 3.51305034 1 45.000000 90.000000 -80.250000
255 1 34.92560585 9.87010043 6.06570582 1 45.000000 90.000000 -80.250000
256 1 34.92560585 9.87010043 8.61836130 1 45.000000 90.000000 -80.250000
257 1 34.92560585 9.87010043 11.17101678 1 45.000000 90.000000 -80.250000
258 1 34.92560585 9.87010043 13.72367226 1 45.000000 90.000000 -80.250000
259 1 34.92560585 9.87010043 16.27632774 1 45.000000 90.000000 -80.250000
260 1 34.92560585 9.87010043 18.82898322 1 45.000000 90.000000 -80.250000
261 1 34.92560585 9.87010043 21.38163870 1 45.000000 90.000000 -80.250000
262 1 34.92560585 9.87010043 23.93429418 1 45.000000 90.000000 -80.250000
263 1 34.92560585 9.87010043 26.48694966 1 45.000000 90.000000 -80.250000
264 1 34.92560585 9.87010043 29.03960514 1 45.000000 90.000000 -80.250000
265 1 33.36282263 8.30653204 2.23672260 1 45.000000 90.000000 -80.250000
266 1 33.36282263 8.30653204 4.78937808 1 45.000000 90.000000 -80.250000
267 1 33.36282263 8.30653204 7.34203356 1 45.000000 90.000000 -80.250000
268 1 33.36282263 8.30653204 9.89468904 1 45.000000 90.000000 -80.250000
269 1 33.36282263 8.30653204 12.44734452 1 45.000000 90.000000 -80.250000
270 1 33.36282263 8.30653204 15.00000000 1 45.000000 90.000000 -80.250000
271 1 33.36282263 8.30653204 17.55265548 1 45.000000 90.000000 -80.250000
272 1 33.36282263 8.30653204 20.10531096 1 45.000000 90.000000 -80.250000
273 1 33.36282263 8.30653204 22.65796644 1 45.000000 90.000000 -80.250000
274 1 33.36282263 8.30653204 25.21062192 1 45.000000 90.000000 -80.250000
275 1 33.36282263 8.30653204 27.76327740 1 45.000000 90.000000 -80.250000
276 1 31.80003942 6.74296365 0.96039486 1 45.000000 90.000000 -80.250000
277 1 31.80003942 6.74296365 3.51305034 1 45.000000 90.000000 -80.250000
278 1 31.80003942 6.74296365 6.06570582 1 45.000000 90.000000 -80.250000
279 1 31.80003942 6.74296365 8.61836130 1 45.000000 90.000000 -80.250000
280 1 31.80003942 6.74296365 11.17101678 1 45.000000 90.000000 -80.250000
281 1 31.80003942 6.74296365 13.72367226 1 45.000000 90.000000 -80.250000
282 1 31.80003942 6.74296365 16.27632774 1 45.000000 90.000000 -80.250000
283 1 31.80003942 6.74296365 18.82898322 1 45.000000 90.000000 -80.250000
284 1 31.80003942 6.74296365 21.38163870 1 45.000000 90.000000 -80.250000
285 1 31.80003942 6.74296365 23.93429418 1 45.000000 90.000000 -80.250000
286 1 31.80003942 6.74296365 26.48694966 1 45.000000 90.000000 -80.250000
287 1 31.80003942 6.74296365 29.03960514 1 45.000000 90.000000 -80.250000
288 1 30.23725620 5.17939525 2.23672260 1 45.000000 90.000000 -80.250000
289 1 30.23725620 5.17939525 4.78937808 1 45.000000 90.000000 -80.250000
290 1 30.23725620 5.17939525 7.34203356 1 45.000000 90.000000 -80.250000
291 1 30.23725620 5.17939525 9.89468904 1 45.000000 90.000000 -80.250000
292 1 30.23725620 5.17939525 12.44734452 1 45.000000 90.000000 -80.250000
293 1 30.23725620 5.17939525 15.00000000 1 45.000000 90.000000 -80.250000
294 1 30.23725620 5.17939525 17.55265548 1 45.000000 90.000000 -80.250000
295 1 30.23725620 5.17939525 20.10531096 1 45.000000 90.000000 -80.250000
296 1 30.23725620 5.17939525 22.65796644 1 45.000000 90.000000 -80.250000
297 1 30.23725620 5.17939525 25.21062192 1 45.000000 90.000000 -80.250000
298 1 30.23725620 5.17939525 27.76327740 1 45.000000 90.000000 -80.250000
299 1 28.67447298 3.61582686 0.96039486 1 45.000000 90.000000 -80.250000
300 1 28.67447298 3.61582686 3.51305034 1 45.000000 90.000000 -80.250000
301 1 28.67447298 3.61582686 6.06570582 1 45.000000 90.000000 -80.250000
302 1 28.67447298 3.61582686 8.61836130 1 45.000000 90.000000 -80.250000
303 1 28.67447298 3.61582686 11.17101678 1 45.000000 90.000000 -80.250000
304 1 28.67447298 3.61582686 13.72367226 1 45.000000 90.000000 -80.250000
305 1 28.67447298 3.61582686 16.27632774 1 45.000000 90.000000 -80.250000
306 1 28.67447298 3.61582686 18.82898322 1 45.000000 90.000000 -80.250000
307 1 28.67447298 3.61582686 21.38163870 1 45.000000 90.000000 -80.250000
308 1 28.67447298 3.61582686 23.93429418 1 45.000000 90.000000 -80.250000
309 1 28.67447298 3.61582686 26.48694966 1 45.000000 90.000000 -80.250000
310 1 28.67447298 3.61582686 29.03960514 1 45.000000 90.000000 -80.250000
311 1 27.11168976 2.05225847 2.23672260 1 45.000000 90.000000 -80.250000
312 1 27.11168976 2.05225847 4.78937808 1 45.000000 90.000000 -80.250000
313 1 27.11168976 2.05225847 7.34203356 1 45.000000 90.000000 -80.250000
314 1 27.11168976 2.05225847 9.89468904 1 45.000000 90.000000 -80.250000
315 1 27.11168976 2.05225847 12.44734452 1 45.000000 90.000000 -80.250000
316 1 27.11168976 2.05225847 15.00000000 1 45.000000 90.000000 -80.250000
317 1 27.11168976 2.05225847 17.55265548 1 45.000000 90.000000 -80.250000
318 1 27.11168976 2.05225847 20.10531096 1 45.000000 90.000000 -80.250000
319 1 27.11168976 2.05225847 22.65796644 1 45.000000 90.000000 -80.250000
320 1 27.11168976 2.05225847 25.21062192 1 45.000000 90.000000 -80.250000
321 1 27.11168976 2.05225847 27.76327740 1 45.000000 90.000000 -80.250000
322 1 48.55836386 26.45800103 2.23672260 1 45.000000 90.000000 -80.250000
323 1 48.55836386 26.45800103 4.78937808 1 45.000000 90.000000 -80.250000
324 1 48.55836386 26.45800103 7.34203356 1 45.000000 90.000000 -80.250000
325 1 48.55836386 26.45800103 9.89468904 1 45.000000 90.000000 -80.250000
326 1 48.55836386 26.45800103 12.44734452 1 45.000000 90.000000 -80.250000
327 1 48.55836386 26.45800103 15.00000000 1 45.000000 90.000000 -80.250000
328 1 48.55836386 26.45800103 17.55265548 1 45.000000 90.000000 -80.250000
329 1 48.55836386 26.45800103 20.10531096 1 45.000000 90.000000 -80.250000
330 1 48.55836386 26.45800103 22.65796644 1 45.000000 90.000000 -80.250000
331 1 46.99558065 24.89443264 0.96039486 1 45.000000 90.000000 -80.250000
332 1 46.99558065 24.89443264 3.51305034 1 45.000000 90.000000 -80.250000
333 1 46.99558065 24.89443264 6.06570582 1 45.000000 90.000000 -80.250000
334 1 46.99558065 24.89443264 8.61836130 1 45.000000 90.000000 -80.250000
335 1 46.99558065 24.89443264 11.17101678 1 45.000000 90.000000 -80.250000
336 1 46.99558065 24.89443264 13.72367226 1 45.000000 90.000000 -80.250000
337 1 46.99558065 24.89443264 16.27632774 1 45.000000 90.000000 -80.250000
338 1 46.99558065 24.89443264 18.82898322 1 45.000000 90.000000 -80.250000
339 1 46.99558065 24.89443264 21.38163870 1 45.000000 90.000000 -80.250000
340 1 46.99558065 24.89443264 23.93429418 1 45.000000 90.000000 -80.250000
341 1 45.43279743 23.33086425 2.23672260 1 45.000000 90.000000 -80.250000
342 1 45.43279743 23.33086425 4.78937808 1 45.000000 90.000000 -80.250000
343 1 45.43279743 23.33086425 7.34203356 1 45.000000 90.000000 -80.250000
344 1 45.43279743 23.33086425 9.89468904 1 45.000000 90.000000 -80.250000
345 1 45.43279743 23.33086425 12.44734452 1 45.000000 90.000000 -80.250000
346 1 45.43279743 23.33086425 15.00000000 1 45.000000 90.000000 -80.250000
347 1 45.43279743 23.33086425 17.55265548 1 45.000000 90.000000 -80.250000
348 1 45.43279743 23.33086425 20.10531096 1 45.000000 90.000000 -80.250000
349 1 45.43279743 23.33086425 22.65796644 1 45.000000 90.000000 -80.250000
350 1 45.43279743 23.33086425 25.21062192 1 45.000000 90.000000 -80.250000
351 1 43.87001421 21.76729586 0.96039486 1 45.000000 90.000000 -80.250000
352 1 43.87001421 21.76729586 3.51305034 1 45.000000 90.000000 -80.250000
353 1 43.87001421 21.76729586 6.06570582 1 45.000000 90.000000 -80.250000
354 1 43.87001421 21.76729586 8.61836130 1 45.000000 90.000000 -80.250000
355 1 43.87001421 21.76729586 11.17101678 1 45.000000 90.000000 -80.250000
356 1 43.87001421 21.76729586 13.72367226 1 45.000000 90.000000 -80.250000
357 1 43.87001421 21.76729586 16.27632774 1 45.000000 90.000000 -80.250000
358 1 43.87001421 21.76729586 18.82898322 1 45.000000 90.000000 -80.250000
359 1 43.87001421 21.76729586 21.38163870 1 45.000000 90.000000 -80.250000
360 1 43.87001421 21.76729586 23.93429418 1 45.000000 90.000000 -80.250000
361 1 43.87001421 21.76729586 26.48694966 1 45.000000 90.000000 -80.250000
362 1 42.30723100 20.20372746 2.23672260 1 45.000000 90.000000 -80.250000
363 1 42.30723100 20.20372746 4.78937808 1 45.000000 90.000000 -80.250000
364 1 42.30723100 20.20372746 7.34203356 1 45.000000 90.000000 -80.250000
365 1 42.30723100 20.20372746 9.89468904 1 45.000000 90.000000 -80.250000
366 1 42.30723100 20.20372746 12.44734452 1 45.000000 90.000000 -80.250000
367 1 42.30723100 20.20372746 15.00000000 1 45.000000 90.000000 -80.250000
368 1 42.30723100 20.20372746 17.55265548 1 45.000000 90.000000 -80.250000
369 1 42.30723100 20.20372746 20.10531096 1 45.000000 90.000000 -80.250000
370 1 42.30723100 20.20372746 22.65796644 1 45.000000 90.000000 -80.250000
371 1 42.30723100 20.20372746 25.21062192 1 45.000000 90.000000 -80.250000
372 1 42.30723100 20.20372746 27.76327740 1 45.000000 90.000000 -80.250000
373 1 40.74444778 18.64015907 0.96039486 1 45.000000 90.000000 -80.250000
374 1 40.74444778 18.64015907 3.51305034 1 45.000000 90.000000 -80.250000
375 1 40.74444778 18.64015907 6.06570582 1 45.000000 90.000000 -80.250000
376 1 40.74444778 18.64015907 8.61836130 1 45.000000 90.000000 -80.250000
377 1 40.74444778 18.64015907 11.17101678 1 45.000000 90.000000 -80.250000
378 1 40.74444778 18.64015907 13.72367226 1 45.000000 90.000000 -80.250000
379 1 40.74444778 18.64015907 16.27632774 1 45.000000 90.000000 -80.250000
380 1 40.74444778 18.64015907 18.82898322 1 45.000000 90.000000 -80.250000
381 1 40.74444778 18.64015907 21.38163870 1 45.000000 90.000000 -80.250000
382 1 40.74444778 18.64015907 23.93429418 1 45.000000 90.000000 -80.250000
383 1 40.74444778 18.64015907 26.48694966 1 45.000000 90.000000 -80.250000
384 1 40.74444778 18.64015907 29.03960514 1 45.000000 90.000000 -80.250000
385 1 39.18166456 17.07659068 2.23672260 1 45.000000 90.000000 -80.250000
386 1 39.18166456 17.07659068 4.78937808 1 45.000000 90.000000 -80.250000
387 1 39.18166456 17.07659068 7.34203356 1 45.000000 90.000000 -80.250000
388 1 39.18166456 17.07659068 9.89468904 1 45.000000 90.000000 -80.250000
389 1 39.18166456 17.07659068 12.44734452 1 45.000000 90.000000 -80.250000
390 1 39.18166456 17.07659068 15.00000000 1 45.000000 90.000000 -80.250000
391 1 39.18166456 17.07659068 17.55265548 1 45.000000 90.000000 -80.250000
392 1 39.18166456 17.07659068 20.10531096 1 45.000000 90.000000 -80.250000
393 1 39.18166456 17.07659068 22.65796644 1 45.000000 90.000000 -80.250000
394 1 39.18166456 17.07659068 25.21062192 1 45.000000 90.000000 -80.250000
395 1 39.18166456 17.07659068 27.76327740 1 45.000000 90.000000 -80.250000
396 1 37.61888135 15.51302229 0.96039486 1 45.000000 90.000000 -80.250000
397 1 37.61888135 15.51302229 3.51305034 1 45.000000 90.000000 -80.250000
398 1 37.61888135 15.51302229 6.06570582 1 45.000000 90.000000 -80.250000
399 1 37.61888135 15.51302229 8.61836130 1 45.000000 90.000000 -80.250000
400 1 37.61888135 15.51302229 11.17101678 1 45.000000 90.000000 -80.250000
401 1 37.61888135 15.51302229 13.72367226 1 45.000000 90.000000 -80.250000
402 1 37.61888135 15.51302229 16.27632774 1 45.000000 90.000000 -80.250000